                         Program Version 4.2.1 -  RELEASE  -
|  1> ! def2-SVP TightSCF NoFrozenCore esd(abs)
|  2>
|  3> %autoci
|  4>  citype IPROCI
|  5>  nroots[0]=1
|  6>  XPSORB= 14
|  7> end
|  8>
|  9> %esd gshessian "13.GS.hess"
| 10>  #eshessian "ES.hess"
| 11>  COORDSYS CART
| 12>  unit ev
| 13>  printlevel 3
| 14>  SpecRange 10000,250000
| 15>  #doht true
| 16>  hessflag ahas
| 17>  tdip 1,0,0
| 18> end
| 19>
| 20> %numgrad DX 0.05
| 21> end
| 22>
| 23> *xyz 0 1
| 24>   F   -0.00813304008840  0 0
| 25>   C   1.28328723878321    0 0
| 26>   P   2.84806580130518     0 0
| 27> *
| 28>
| 29>                          ****END OF INPUT****

CARTESIAN COORDINATES (ANGSTROEM)
---------------------------------
  F     -0.008133    0.000000    0.000000
  C      1.283287    0.000000    0.000000
  P      2.848066    0.000000    0.000000

 Total Charge           Charge          ....    0
 Multiplicity           Mult            ....    1
 Number of Electrons    NEL             ....   30
 Basis Dimension        Dim             ....   46

ORBITAL ENERGIES
----------------

  NO   OCC          E(Eh)            E(eV)
   0   2.0000     -79.937234     -2175.2027
   1   2.0000     -26.379909      -717.8338
   2   2.0000     -11.386511      -309.8427
   3   2.0000      -7.509031      -204.3311
   4   2.0000      -5.407024      -147.1326
   5   2.0000      -5.405011      -147.0778
   6   2.0000      -5.405011      -147.0778
   7   2.0000      -1.681331       -45.7513
   8   2.0000      -0.979324       -26.6488
   9   2.0000      -0.843431       -22.9509
  10   2.0000      -0.758133       -20.6299
  11   2.0000      -0.758133       -20.6299
  12   2.0000      -0.522461       -14.2169
  13   2.0000      -0.384264       -10.4563
  14   2.0000      -0.384264       -10.4563
  15   0.0000       0.095813         2.6072
  16   0.0000       0.095813         2.6072
  17   0.0000       0.223704         6.0873
  18   0.0000       0.263802         7.1784
  19   0.0000       0.468535        12.7495

MULLIKEN ATOMIC CHARGES
-----------------------
   0 F :   -0.218801
   1 C :    0.097573
   2 P :    0.121228
Sum of atomic charges:    0.0000000

LOEWDIN ATOMIC CHARGES
----------------------
   0 F :   -0.044026
   1 C :   -0.121024
   2 P :    0.165050

  Mayer bond orders larger than 0.100000
B(  0-F ,  1-C ) :   0.9904 B(  1-C ,  2-P ) :   2.7275

FINAL SINGLE POINT ENERGY      -477.418408547595
                             ****ORCA TERMINATED NORMALLY****
TOTAL RUN TIME: 0 days 0 hours 35 minutes 38 seconds 430 msec
